# vtk DataFile Version 3.0
37-vessel network
ASCII
DATASET UNSTRUCTURED_GRID
POINTS 38 double
0.000000 0.000000 0.000000
0.000000 -0.108000 0.000000
0.084000 -0.108000 0.000000
0.388500 0.196500 0.000000
0.672600 -0.173400 0.000000
1.118100 -0.222900 0.000000
1.682100 -0.081900 0.000000
1.489800 -0.382200 0.000000
-0.063000 -0.108000 0.000000
-0.436800 0.265800 0.000000
-0.150000 -0.108000 0.000000
-0.762900 -0.176100 0.000000
-1.235400 -0.228600 0.000000
-1.823400 -0.081600 0.000000
-1.636500 -0.400500 0.000000
0.000000 -0.276000 0.000000
0.526500 -0.276000 0.000000
0.000000 -0.492000 0.000000
0.114000 -0.492000 0.000000
0.153000 -0.492000 0.000000
0.611400 -0.377400 0.000000
0.390600 -0.848400 0.000000
0.616200 -0.547800 0.000000
0.000000 -0.678000 0.000000
-0.360000 -0.678000 0.000000
0.000000 -0.699000 0.000000
0.354000 -0.699000 0.000000
0.000000 -1.011000 0.000000
0.430500 -1.441500 0.000000
0.819300 -1.895100 0.000000
1.128300 -2.389500 0.000000
-0.422100 -1.433100 0.000000
-0.773100 -1.842600 0.000000
-1.083600 -2.339400 0.000000
1.421700 -2.731800 0.000000
1.264200 -2.751900 0.000000
-1.217700 -2.697000 0.000000
-1.310400 -2.604000 0.000000
CELLS 37 111
2 0 1
2 1 2
2 2 3
2 2 4
2 4 5
2 5 6
2 5 7
2 1 8
2 8 9
2 8 10
2 10 11
2 11 12
2 12 13
2 12 14
2 10 15
2 15 16
2 15 17
2 17 18
2 18 19
2 19 20
2 19 21
2 18 22
2 17 23
2 23 24
2 23 25
2 25 26
2 25 27
2 27 28
2 28 29
2 29 30
2 27 31
2 31 32
2 32 33
2 30 34
2 30 35
2 33 36
2 33 37
CELL_TYPES 37
3
3
3
3
3
3
3
3
3
3
3
3
3
3
3
3
3
3
3
3
3
3
3
3
3
3
3
3
3
3
3
3
3
3
3
3
3
CELL_DATA 37
SCALARS vessel_id int 1
LOOKUP_TABLE default
0
1
2
3
4
5
6
7
8
9
10
11
12
13
14
15
16
17
18
19
20
21
22
23
24
25
26
27
28
29
30
31
32
33
34
35
36
SCALARS a0 double 1
LOOKUP_TABLE default
6.514407e-04
3.801327e-04
9.059379e-05
5.972042e-05
3.504635e-05
1.346141e-05
1.385442e-05
5.309292e-04
9.781789e-05
4.908739e-04
6.137541e-05
3.610350e-05
1.346141e-05
1.346141e-05
4.374354e-04
5.332665e-05
3.801327e-04
4.951433e-05
5.835854e-05
1.052088e-05
1.158117e-05
3.441960e-05
2.693840e-04
2.107412e-05
1.960668e-04
2.042821e-05
1.911345e-04
4.778362e-05
3.589081e-05
1.676385e-05
5.076939e-05
3.504635e-05
1.604600e-05
7.547676e-06
7.354154e-06
7.842672e-06
7.547676e-06
SCALARS E double 1
LOOKUP_TABLE default
1.200000e+06
1.200000e+06
1.200000e+06
1.200000e+06
1.200000e+06
1.200000e+06
1.200000e+06
1.200000e+06
1.200000e+06
1.200000e+06
1.200000e+06
1.200000e+06
1.200000e+06
1.200000e+06
1.200000e+06
1.200000e+06
1.200000e+06
1.200000e+06
1.200000e+06
1.200000e+06
1.200000e+06
1.200000e+06
1.200000e+06
1.200000e+06
1.200000e+06
1.200000e+06
1.200000e+06
1.200000e+06
1.200000e+06
1.200000e+06
1.200000e+06
1.200000e+06
1.200000e+06
1.200000e+06
1.200000e+06
1.200000e+06
1.200000e+06
SCALARS h_wall double 1
LOOKUP_TABLE default
5.100000e-04
3.500000e-04
2.800000e-04
2.700000e-04
1.600000e-04
1.500000e-04
2.100000e-04
5.000000e-04
3.100000e-04
4.100000e-04
2.200000e-04
1.700000e-04
2.100000e-04
1.600000e-04
4.300000e-04
2.700000e-04
3.400000e-04
2.000000e-04
1.250000e-03
1.300000e-04
1.100000e-04
2.100000e-04
3.300000e-04
1.900000e-04
3.500000e-04
1.600000e-04
3.000000e-04
2.100000e-04
1.500000e-04
2.000000e-04
2.000000e-04
1.600000e-04
1.300000e-04
1.500000e-04
1.200000e-04
1.100000e-04
1.000000e-04
SCALARS p_d double 1
LOOKUP_TABLE default
0.0
0.0
0.0
0.0
0.0
0.0
0.0
0.0
0.0
0.0
0.0
0.0
0.0
0.0
0.0
0.0
0.0
0.0
0.0
0.0
0.0
0.0
0.0
0.0
0.0
0.0
0.0
0.0
0.0
0.0
0.0
0.0
0.0
0.0
0.0
0.0
0.0
SCALARS p0 double 1
LOOKUP_TABLE default
0.0
0.0
0.0
0.0
0.0
0.0
0.0
0.0
0.0
0.0
0.0
0.0
0.0
0.0
0.0
0.0
0.0
0.0
0.0
0.0
0.0
0.0
0.0
0.0
0.0
0.0
0.0
0.0
0.0
0.0
0.0
0.0
0.0
0.0
0.0
0.0
0.0
SCALARS L double 1
LOOKUP_TABLE default
3.600000e-02
2.800000e-02
1.450000e-01
2.180000e-01
1.650000e-01
2.350000e-01
1.770000e-01
2.100000e-02
1.780000e-01
2.900000e-02
2.270000e-01
1.750000e-01
2.450000e-01
1.910000e-01
5.600000e-02
1.950000e-01
7.200000e-02
3.800000e-02
1.300000e-02
1.910000e-01
1.980000e-01
1.860000e-01
6.200000e-02
1.200000e-01
7.000000e-03
1.180000e-01
1.040000e-01
2.050000e-01
2.160000e-01
2.060000e-01
2.010000e-01
1.950000e-01
2.070000e-01
1.630000e-01
1.510000e-01
1.490000e-01
1.260000e-01
SCALARS a_d double 1
LOOKUP_TABLE default
5.896282e-04
2.627897e-04
6.691743e-05
4.656626e-05
2.941528e-05
1.346141e-05
1.385442e-05
5.107190e-04
6.808235e-05
4.637597e-04
4.790492e-05
3.048149e-05
1.346141e-05
1.346141e-05
4.082282e-04
4.232822e-05
3.224614e-04
4.951433e-05
5.835854e-05
1.052088e-05
1.158117e-05
3.019071e-05
2.342889e-04
2.107412e-05
1.960668e-04
2.042821e-05
1.469781e-04
4.161799e-05
2.543104e-05
1.527587e-05
4.254489e-05
2.463009e-05
1.506871e-05
7.547676e-06
7.354154e-06
7.842672e-06
7.547676e-06
SCALARS r_d double 1
LOOKUP_TABLE default
1.440000e-02
1.100000e-02
5.370000e-03
4.360000e-03
3.340000e-03
2.070000e-03
2.100000e-03
1.300000e-02
5.580000e-03
1.250000e-02
4.420000e-03
3.390000e-03
2.070000e-03
2.070000e-03
1.180000e-02
4.120000e-03
1.100000e-02
3.970000e-03
4.310000e-03
1.830000e-03
1.920000e-03
3.310000e-03
9.260000e-03
2.590000e-03
7.900000e-03
2.550000e-03
7.800000e-03
3.900000e-03
3.380000e-03
2.310000e-03
4.020000e-03
3.340000e-03
2.260000e-03
1.550000e-03
1.530000e-03
1.580000e-03
1.550000e-03
POINT_DATA 38
SCALARS boundary_id int 1
LOOKUP_TABLE default
0
255
255
1
255
255
2
3
255
4
255
255
255
5
6
255
7
255
255
255
8
9
10
255
11
255
12
255
255
255
255
255
255
255
13
14
15
16
SCALARS R1 double 1
LOOKUP_TABLE default
0.0
0.0
0.0
0.0
0.0
0.0
0.0
0.0
0.0
0.0
0.0
0.0
0.0
0.0
0.0
0.0
0.0
0.0
0.0
0.0
0.0
0.0
0.0
0.0
0.0
0.0
0.0
0.0
0.0
0.0
0.0
0.0
0.0
0.0
0.0
0.0
0.0
0.0
SCALARS R2 double 1
LOOKUP_TABLE default
0.000000e+00
0.000000e+00
0.000000e+00
2.670000e+09
0.000000e+00
0.000000e+00
3.920000e+09
3.240000e+09
0.000000e+00
3.110000e+09
0.000000e+00
0.000000e+00
0.000000e+00
3.740000e+09
3.770000e+09
0.000000e+00
2.590000e+09
0.000000e+00
0.000000e+00
0.000000e+00
3.540000e+09
4.240000e+09
3.750000e+09
0.000000e+00
3.460000e+09
0.000000e+00
3.450000e+09
0.000000e+00
0.000000e+00
0.000000e+00
0.000000e+00
0.000000e+00
0.000000e+00
0.000000e+00
5.160000e+09
5.650000e+09
4.590000e+09
3.160000e+09
SCALARS C double 1
LOOKUP_TABLE default
0.0
0.0
0.0
0.0
0.0
0.0
0.0
0.0
0.0
0.0
0.0
0.0
0.0
0.0
0.0
0.0
0.0
0.0
0.0
0.0
0.0
0.0
0.0
0.0
0.0
0.0
0.0
0.0
0.0
0.0
0.0
0.0
0.0
0.0
0.0
0.0
0.0
0.0
SCALARS P_out double 1
LOOKUP_TABLE default
432.6
432.6
432.6
432.6
432.6
432.6
432.6
432.6
432.6
432.6
432.6
432.6
432.6
432.6
432.6
432.6
432.6
432.6
432.6
432.6
432.6
432.6
432.6
432.6
432.6
432.6
432.6
432.6
432.6
432.6
432.6
432.6
432.6
432.6
432.6
432.6
432.6
432.6