# vtk DataFile Version 3.0
56-vessel network
ASCII
DATASET UNSTRUCTURED_GRID
POINTS 78 double
0.000000000000e+00 0.000000000000e+00 0.000000000000e+00
0.000000000000e+00 -7.441376549500e-02 0.000000000000e+00
2.715957715138e-02 -1.132016614677e-01 0.000000000000e+00
5.026259609668e-04 -8.400444015901e-02 0.000000000000e+00
3.685047604070e-02 -1.256054464095e-01 0.000000000000e+00
1.034808085919e-01 -1.409803179546e-01 0.000000000000e+00
2.323700323465e-01 -1.853817735974e-01 0.000000000000e+00
6.382682428800e-02 -1.566381851754e-01 0.000000000000e+00
1.425552514479e-01 -2.472048805304e-01 0.000000000000e+00
2.889274035406e-01 -4.155867799947e-01 0.000000000000e+00
5.808755764934e-01 -4.883776348908e-01 0.000000000000e+00
3.095978252537e-01 -4.369916282775e-01 0.000000000000e+00
3.255650376098e-01 -4.400953399514e-01 0.000000000000e+00
4.845827037032e-01 -6.001676672776e-01 0.000000000000e+00
5.518903443970e-01 -4.840885230503e-01 0.000000000000e+00
1.623026752322e-01 -1.252190462910e-01 0.000000000000e+00
2.298181943143e-01 -1.796055329852e-01 0.000000000000e+00
-6.378667005110e-02 -1.868888204149e-01 0.000000000000e+00
1.232081116966e-03 -9.094474236620e-02 0.000000000000e+00
-1.198427092896e-01 -2.106831973681e-01 0.000000000000e+00
-1.278350549034e-01 -3.024351653365e-01 0.000000000000e+00
-2.270981790235e-02 -1.341370715489e-01 0.000000000000e+00
7.967784710100e-03 -1.334723011298e-01 0.000000000000e+00
-2.062020457335e-01 -2.236322108107e-01 0.000000000000e+00
-4.073510723147e-02 -1.710943915060e-01 0.000000000000e+00
-9.334058165319e-02 -2.789515978010e-01 0.000000000000e+00
-1.911450345841e-01 -4.794804433688e-01 0.000000000000e+00
-4.630506628059e-01 -6.302001942330e-01 0.000000000000e+00
-2.027715479465e-01 -5.068707923799e-01 0.000000000000e+00
-2.165659514283e-01 -5.154904923436e-01 0.000000000000e+00
-2.846040258218e-01 -7.317036775203e-01 0.000000000000e+00
-4.120940148627e-01 -6.376699866219e-01 0.000000000000e+00
9.516029321999e-03 -1.432475328932e-01 0.000000000000e+00
1.462811326080e-01 -2.848719432146e-01 0.000000000000e+00
1.115445336877e-02 -1.509557119957e-01 0.000000000000e+00
-5.840749538296e-02 -3.148333935338e-01 0.000000000000e+00
1.518062110692e-02 -1.659815745543e-01 0.000000000000e+00
1.695848031037e-01 -2.955420667200e-01 0.000000000000e+00
1.682676966901e-02 -1.710478988836e-01 0.000000000000e+00
-3.731352378980e-02 -3.481328195088e-01 0.000000000000e+00
6.039024512702e-02 -2.845346324193e-01 0.000000000000e+00
6.155410479565e-02 -2.875665905149e-01 0.000000000000e+00
7.550169476881e-02 -2.969743587412e-01 0.000000000000e+00
6.724371367345e-02 -3.003456612836e-01 0.000000000000e+00
1.325500806712e-01 -3.312524872091e-01 0.000000000000e+00
7.944983840381e-02 -2.969054436377e-01 0.000000000000e+00
1.564399994698e-01 -3.488359629898e-01 0.000000000000e+00
1.436956983946e-01 -2.924129354680e-01 0.000000000000e+00
2.527332807564e-01 -4.117990373842e-01 0.000000000000e+00
6.920455567893e-02 -3.041940304032e-01 0.000000000000e+00
6.616549738555e-02 -3.258180537684e-01 0.000000000000e+00
7.519319701843e-02 -3.145666614715e-01 0.000000000000e+00
1.093767929141e-01 -3.305067340209e-01 0.000000000000e+00
1.046523829091e-01 -3.599298296871e-01 0.000000000000e+00
1.883201035409e-01 -3.937337830781e-01 0.000000000000e+00
1.294714635609e-01 -3.940903635789e-01 0.000000000000e+00
1.775695173404e-01 -4.534865134260e-01 0.000000000000e+00
1.307636051490e-01 -4.681171055821e-01 0.000000000000e+00
2.459617808565e-01 -5.294438172045e-01 0.000000000000e+00
2.472700462174e-01 -4.734728184664e-01 0.000000000000e+00
2.671004360170e-01 -5.529206721724e-01 0.000000000000e+00
4.993841450528e-01 -6.065475919054e-01 0.000000000000e+00
4.928692529693e-01 -7.786894891248e-01 0.000000000000e+00
5.862278703485e-01 -8.720481065039e-01 0.000000000000e+00
9.665760597964e-01 -9.391137543672e-01 0.000000000000e+00
5.927656340803e-01 -8.779347354088e-01 0.000000000000e+00
6.196397401000e-01 -9.021322891558e-01 0.000000000000e+00
9.041786362994e-01 -1.158332262054e+00 0.000000000000e+00
1.378934617163e-01 -5.700788048094e-01 0.000000000000e+00
9.021686748003e-02 -5.282301162506e-01 0.000000000000e+00
1.400971540726e-01 -6.015930737296e-01 0.000000000000e+00
1.731529353655e-02 -8.059364050246e-01 0.000000000000e+00
1.790082461693e-01 -9.184984876560e-01 0.000000000000e+00
1.950984222523e-01 -1.049542455763e+00 0.000000000000e+00
1.378080265960e-02 -1.390551301565e+00 0.000000000000e+00
1.966260716670e-01 -1.058206186115e+00 0.000000000000e+00
2.029058219099e-01 -1.093820419499e+00 0.000000000000e+00
2.693930432270e-01 -1.470888188992e+00 0.000000000000e+00
CELLS 77 231
2 0 1
2 1 2
2 1 3
2 2 4
2 2 5
2 4 6
2 4 7
2 7 8
2 8 9
2 9 10
2 9 11
2 11 12 
2 11 13
2 12 14
2 5 15
2 5 16
2 3 17
2 3 18
2 17 19
2 17 20
2 18 21
2 18 22
2 21 23
2 21 24
2 24 25
2 25 26
2 26 27
2 26 28
2 28 29
2 28 30
2 29 31
2 22 32
2 32 33
2 32 34
2 34 35
2 34 36
2 36 37
2 36 38
2 38 39
2 38 40
2 40 41
2 41 42
2 41 43
2 42 44
2 42 45
2 45 46
2 45 47
2 43 48
2 43 49
2 49 50
2 49 51
2 51 52
2 51 53
2 53 54
2 53 55
2 55 56
2 55 57
2 56 58
2 56 59
2 60 61
2 58 60
2 60 62
2 62 63
2 63 64
2 63 65
2 65 66
2 66 67
2 57 68
2 57 69
2 68 70
2 70 71
2 70 72
2 72 73
2 73 74
2 73 75
2 75 76
2 76 77
CELL_TYPES 77
3
3
3
3
3
3
3
3
3
3
3
3
3
3
3
3
3
3
3
3
3
3
3
3
3
3
3
3
3
3
3
3
3
3
3
3
3
3
3
3
3
3
3
3
3
3
3
3
3
3
3
3
3
3
3
3
3
3
3
3
3
3
3
3
3
3
3
3
3
3
3
3
3
3
3
3
3
CELL_DATA 77
SCALARS vessel_id double 1
LOOKUP_TABLE default
0.000000000000000e+00
1.000000000000000e+00
2.000000000000000e+00
3.000000000000000e+00
4.000000000000000e+00
5.000000000000000e+00
6.000000000000000e+00
7.000000000000000e+00
8.000000000000000e+00
9.000000000000000e+00
1.000000000000000e+01
1.100000000000000e+01
1.200000000000000e+01
1.300000000000000e+01
1.400000000000000e+01
1.500000000000000e+01
1.600000000000000e+01
1.700000000000000e+01
1.800000000000000e+01
1.900000000000000e+01
2.000000000000000e+01
2.100000000000000e+01
2.200000000000000e+01
2.300000000000000e+01
2.400000000000000e+01
2.500000000000000e+01
2.600000000000000e+01
2.700000000000000e+01
2.800000000000000e+01
2.900000000000000e+01
3.000000000000000e+01
3.100000000000000e+01
3.200000000000000e+01
3.300000000000000e+01
3.400000000000000e+01
3.500000000000000e+01
3.600000000000000e+01
3.700000000000000e+01
3.800000000000000e+01
3.900000000000000e+01
4.000000000000000e+01
4.100000000000000e+01
4.200000000000000e+01
4.300000000000000e+01
4.400000000000000e+01
4.500000000000000e+01
4.600000000000000e+01
4.700000000000000e+01
4.800000000000000e+01
4.900000000000000e+01
5.000000000000000e+01
5.100000000000000e+01
5.200000000000000e+01
5.300000000000000e+01
5.400000000000000e+01
5.500000000000000e+01
5.600000000000000e+01
5.700000000000000e+01
5.800000000000000e+01
5.900000000000000e+01
6.000000000000000e+01
6.100000000000000e+01
6.200000000000000e+01
6.300000000000000e+01
6.400000000000000e+01
6.500000000000000e+01
6.600000000000000e+01
6.700000000000000e+01
6.800000000000000e+01
6.900000000000000e+01
7.000000000000000e+01
7.100000000000000e+01
7.200000000000000e+01
7.300000000000000e+01
7.400000000000000e+01
7.500000000000000e+01
7.600000000000000e+01
SCALARS a0 double 1
LOOKUP_TABLE default
6.560831648719301e-04
1.304313772970687e-04
5.114269987288588e-04
6.465313205018595e-05
4.780604843808933e-05
5.601289970210148e-06
3.296236685976616e-05
1.505363549165194e-05
1.197821245496445e-05
5.965520024419201e-06
6.228094338406237e-06
2.889263073246115e-06
6.228094338406237e-06
1.435632444466849e-06
1.612376663015927e-05
2.402478489148926e-05
4.780604843808933e-05
4.850025336981787e-04
1.612376663015927e-05
2.402478489148926e-05
5.509444062521553e-05
4.095165918701805e-04
5.601289970210148e-06
2.624648122535929e-05
1.505363549165194e-05
1.197821245496445e-05
5.965520024419201e-06
6.228094338406237e-06
2.889263073246115e-06
6.228094338406237e-06
1.435632444466849e-06
3.435231359392624e-04
6.157521601035997e-06
3.326238754013773e-04
6.157521601035997e-06
3.185237144157307e-04
7.547676350249477e-06
3.062170105097952e-04
7.547676350249477e-06
2.366519577846861e-04
1.774378319251523e-04
3.382365787465216e-05
1.723602865349168e-04
2.266768458279643e-05
1.475011966699981e-05
7.131491839022864e-06
1.475011966699981e-05
4.842582314738344e-05
1.670478254653038e-04
2.305344423315521e-05
1.623889131420187e-04
3.013950032127070e-05
1.441764160114872e-04
1.355887246275476e-05
1.195657712384674e-04
5.795047455225516e-05
5.795047455225516e-05
3.386634751858030e-05
2.495291182855027e-05
1.444713470144861e-05
3.149714058406938e-05
2.669358264067704e-05
2.005992884650865e-05
4.273369282707716e-06
1.745399303698921e-05
1.729721498006170e-05
4.747970688938538e-06
3.386634751858030e-05
2.495291182855027e-05
3.149714059401680e-05
1.444713470144861e-05
2.669358264983456e-05
2.005992914023396e-05
4.273369282707716e-06
1.745399331097248e-05
1.729721498006170e-05
4.747970688938538e-06
SCALARS a_d double 1
LOOKUP_TABLE default
6.560832e-04
1.304314e-04
5.114270e-04
6.465313e-05
4.780605e-05
5.601290e-06
3.296237e-05
1.505364e-05
1.197821e-05
5.965520e-06
6.228094e-06
2.889263e-06
6.228094e-06
1.435632e-06
1.612377e-05
2.402478e-05
4.780605e-05
4.850025e-04
1.612377e-05
2.402478e-05
5.509444e-05
4.095166e-04
5.601290e-06
2.624648e-05
1.505364e-05
1.197821e-05
5.965520e-06
6.228094e-06
2.889263e-06
6.228094e-06
1.435632e-06
3.435231e-04
6.157522e-06
3.326239e-04
6.157522e-06
3.185237e-04
7.547676e-06
3.062170e-04
7.547676e-06
2.366520e-04
1.774378e-04
3.382366e-05
1.723603e-04
2.266768e-05
1.475012e-05
7.131492e-06
1.475012e-05
4.842582e-05
1.670478e-04
2.305344e-05
1.623889e-04
3.013950e-05
1.441764e-04
1.355887e-05
1.195658e-04
5.795047e-05
5.795047e-05
3.386635e-05
2.495291e-05
3.149714e-05
1.444713e-05
2.669358e-05
2.005993e-05
4.273369e-06
1.745399e-05
1.729721e-05
4.747971e-06
3.386635e-05
2.495291e-05
3.149714e-05
1.444713e-05
2.669358e-05
2.005993e-05
4.273369e-06
1.745399e-05
1.729721e-05
4.747971e-06
SCALARS E double 1
LOOKUP_TABLE default
2.250000000000000e+05
2.250000000000000e+05
2.250000000000000e+05
2.250000000000000e+05
2.250000000000000e+05
2.250000000000000e+05
2.250000000000000e+05
2.250000000000000e+05
2.250000000000000e+05
2.250000000000000e+05
2.250000000000000e+05
2.250000000000000e+05
2.250000000000000e+05
2.250000000000000e+05
2.250000000000000e+05
2.250000000000000e+05
2.250000000000000e+05
2.250000000000000e+05
2.250000000000000e+05
2.250000000000000e+05
2.250000000000000e+05
2.250000000000000e+05
2.250000000000000e+05
2.250000000000000e+05
2.250000000000000e+05
2.250000000000000e+05
2.250000000000000e+05
2.250000000000000e+05
2.250000000000000e+05
2.250000000000000e+05
2.250000000000000e+05
2.250000000000000e+05
2.250000000000000e+05
2.250000000000000e+05
2.250000000000000e+05
2.250000000000000e+05
2.250000000000000e+05
2.250000000000000e+05
2.250000000000000e+05
2.250000000000000e+05
2.250000000000000e+05
2.250000000000000e+05
2.250000000000000e+05
2.250000000000000e+05
2.250000000000000e+05
2.250000000000000e+05
2.250000000000000e+05
2.250000000000000e+05
2.250000000000000e+05
2.250000000000000e+05
2.250000000000000e+05
2.250000000000000e+05
2.250000000000000e+05
2.250000000000000e+05
2.250000000000000e+05
2.250000000000000e+05
2.250000000000000e+05
2.250000000000000e+05
2.250000000000000e+05
2.250000000000000e+05
2.250000000000000e+05
2.250000000000000e+05
2.250000000000000e+05
2.250000000000000e+05
2.250000000000000e+05
2.250000000000000e+05
2.250000000000000e+05
2.250000000000000e+05
2.250000000000000e+05
2.250000000000000e+05
2.250000000000000e+05
2.250000000000000e+05
2.250000000000000e+05
2.250000000000000e+05
2.250000000000000e+05
2.250000000000000e+05
2.250000000000000e+05
SCALARS h_wall double 1
LOOKUP_TABLE default
1.631564e-03
8.636143e-04
1.471135e-03
6.994597e-04
6.467764e-04
3.647315e-04
5.902989e-04
4.857687e-04
4.569450e-04
3.721173e-04
3.771988e-04
2.911365e-04
3.771988e-04
2.234378e-04
4.945289e-04
5.466147e-04
6.467764e-04
1.438959e-03
4.945289e-04
5.466147e-04
6.705850e-04
1.341092e-03
3.647315e-04
5.585529e-04
4.857687e-04
4.569450e-04
3.721173e-04
3.771988e-04
2.911365e-04
3.771988e-04
2.234378e-04
1.247117e-03
3.758520e-04
1.230724e-03
3.758520e-04
1.209114e-03
4.001582e-04
1.189867e-03
4.001582e-04
1.073515e-03
9.623434e-04
5.940038e-04
9.521816e-04
5.388588e-04
4.831798e-04
3.933350e-04
4.831798e-04
6.488764e-04
9.414298e-04
5.411027e-04
9.318966e-04
5.776286e-04
8.936369e-04
4.725188e-04
8.390896e-04
6.794545e-04
6.794545e-04
5.941856e-04
5.517089e-04
5.838289e-04
4.805459e-04
5.608542e-04
5.227595e-04
3.336986e-04
5.047052e-04
5.035432e-04
3.456359e-04
5.941856e-04
5.517089e-04
5.838289e-04
4.805459e-04
5.608542e-04
5.227595e-04
3.336986e-04
5.047052e-04
5.035432e-04
3.456359e-04
SCALARS p_d double 1
LOOKUP_TABLE default
1.000000000000000e+04
1.000000000000000e+04
1.000000000000000e+04
1.000000000000000e+04
1.000000000000000e+04
1.000000000000000e+04
1.000000000000000e+04
1.000000000000000e+04
1.000000000000000e+04
1.000000000000000e+04
1.000000000000000e+04
1.000000000000000e+04
1.000000000000000e+04
1.000000000000000e+04
1.000000000000000e+04
1.000000000000000e+04
1.000000000000000e+04
1.000000000000000e+04
1.000000000000000e+04
1.000000000000000e+04
1.000000000000000e+04
1.000000000000000e+04
1.000000000000000e+04
1.000000000000000e+04
1.000000000000000e+04
1.000000000000000e+04
1.000000000000000e+04
1.000000000000000e+04
1.000000000000000e+04
1.000000000000000e+04
1.000000000000000e+04
1.000000000000000e+04
1.000000000000000e+04
1.000000000000000e+04
1.000000000000000e+04
1.000000000000000e+04
1.000000000000000e+04
1.000000000000000e+04
1.000000000000000e+04
1.000000000000000e+04
1.000000000000000e+04
1.000000000000000e+04
1.000000000000000e+04
1.000000000000000e+04
1.000000000000000e+04
1.000000000000000e+04
1.000000000000000e+04
1.000000000000000e+04
1.000000000000000e+04
1.000000000000000e+04
1.000000000000000e+04
1.000000000000000e+04
1.000000000000000e+04
1.000000000000000e+04
1.000000000000000e+04
1.000000000000000e+04
1.000000000000000e+04
1.000000000000000e+04
1.000000000000000e+04
1.000000000000000e+04
1.000000000000000e+04
1.000000000000000e+04
1.000000000000000e+04
1.000000000000000e+04
1.000000000000000e+04
1.000000000000000e+04
1.000000000000000e+04
1.000000000000000e+04
1.000000000000000e+04
1.000000000000000e+04
1.000000000000000e+04
1.000000000000000e+04
1.000000000000000e+04
1.000000000000000e+04
1.000000000000000e+04
1.000000000000000e+04
1.000000000000000e+04
SCALARS p0 double 1
LOOKUP_TABLE default
0.000000000000000e+00
0.000000000000000e+00
0.000000000000000e+00
0.000000000000000e+00
0.000000000000000e+00
0.000000000000000e+00
0.000000000000000e+00
0.000000000000000e+00
0.000000000000000e+00
0.000000000000000e+00
0.000000000000000e+00
0.000000000000000e+00
0.000000000000000e+00
0.000000000000000e+00
0.000000000000000e+00
0.000000000000000e+00
0.000000000000000e+00
0.000000000000000e+00
0.000000000000000e+00
0.000000000000000e+00
0.000000000000000e+00
0.000000000000000e+00
0.000000000000000e+00
0.000000000000000e+00
0.000000000000000e+00
0.000000000000000e+00
0.000000000000000e+00
0.000000000000000e+00
0.000000000000000e+00
0.000000000000000e+00
0.000000000000000e+00
0.000000000000000e+00
0.000000000000000e+00
0.000000000000000e+00
0.000000000000000e+00
0.000000000000000e+00
0.000000000000000e+00
0.000000000000000e+00
0.000000000000000e+00
0.000000000000000e+00
0.000000000000000e+00
0.000000000000000e+00
0.000000000000000e+00
0.000000000000000e+00
0.000000000000000e+00
0.000000000000000e+00
0.000000000000000e+00
0.000000000000000e+00
0.000000000000000e+00
0.000000000000000e+00
0.000000000000000e+00
0.000000000000000e+00
0.000000000000000e+00
0.000000000000000e+00
0.000000000000000e+00
0.000000000000000e+00
0.000000000000000e+00
0.000000000000000e+00
0.000000000000000e+00
0.000000000000000e+00
0.000000000000000e+00
0.000000000000000e+00
0.000000000000000e+00
0.000000000000000e+00
0.000000000000000e+00
0.000000000000000e+00
0.000000000000000e+00
0.000000000000000e+00
0.000000000000000e+00
0.000000000000000e+00
0.000000000000000e+00
0.000000000000000e+00
0.000000000000000e+00
0.000000000000000e+00
0.000000000000000e+00
0.000000000000000e+00
0.000000000000000e+00
SCALARS L double 1
LOOKUP_TABLE default
7.441376549500001e-02
4.735127775500000e-02
9.603836387999999e-03
1.574062902700000e-02
8.121935806699999e-02
2.044531882610000e-01
4.111878208400000e-02
1.200020481100000e-01
2.231082046350000e-01
3.008857661090000e-01
2.975624075400000e-02
1.626606579900000e-02
2.392616295810000e-01
2.305613685150000e-01
6.089687742000000e-02
1.321099627860000e-01
1.213190392410000e-01
6.978531332000000e-03
6.089705994300000e-02
1.321103834940000e-01
4.938412527200000e-02
4.305767013300000e-02
2.041538087470000e-01
4.111878589900000e-02
1.200021370180000e-01
2.231087827000000e-01
3.108844061050000e-01
2.975578988900000e-02
1.626606267300000e-02
2.392621588880000e-01
2.305624696530000e-01
9.897081257000000e-03
1.968810988280000e-01
7.880384408999999e-03
1.780302199640000e-01
1.555591759700000e-02
2.015603446820000e-01
5.327048648000000e-03
1.851762416960000e-01
1.215607464710000e-01
3.247666735000000e-03
1.682383336400000e-02
1.398843446900000e-02
6.655455225100000e-02
3.948745048000001e-03
9.286691413600000e-02
6.440274183300000e-02
2.163983237940000e-01
4.319125635000001e-03
2.183653502300000e-02
1.197728267900000e-02
3.771742490200000e-02
5.408937662700000e-02
9.023854354199999e-02
4.222474203800000e-02
7.642856399300001e-02
7.403801835200001e-02
1.022106340170000e-01
7.250942087000001e-02
2.383937247570000e-01
3.159122443300000e-02
3.192853228950000e-01
1.320290228620000e-01
3.862156733480000e-01
8.797428856000001e-03
3.616267663900000e-02
3.828848515720000e-01
1.022106793050000e-01
7.250939240700001e-02
3.159122355300000e-02
2.383937547870000e-01
3.192853182720000e-01
1.320280854350000e-01
3.862164057750000e-01
8.797382358000001e-03
3.616364034000000e-02
3.828846476270000e-01
SCALARS r_in double 1
LOOKUP_TABLE default
1.595000e-02
6.728090e-03
1.295244e-02
4.895630e-03
4.475590e-03
1.335270e-03
4.177348e-03
2.301000e-03
2.077000e-03
1.378000e-03
1.408000e-03
9.590000e-04
1.408000e-03
6.760000e-04
2.265470e-03
2.765380e-03
4.475590e-03
1.256557e-02
2.265470e-03
2.765380e-03
4.895630e-03
1.228446e-02
1.335270e-03
3.479835e-03
2.301000e-03
2.077000e-03
1.378000e-03
1.408000e-03
9.590000e-04
1.408000e-03
6.760000e-04
1.055000e-02
1.400000e-03
1.036381e-02
1.400000e-03
1.021555e-02
1.550000e-03
9.922895e-03
1.550000e-03
9.822677e-03
7.535740e-03
3.349980e-03
7.494924e-03
2.686140e-03
2.166820e-03
1.506660e-03
2.166820e-03
3.926120e-03
7.319121e-03
2.708900e-03
7.264839e-03
3.097370e-03
7.114312e-03
2.077480e-03
6.434530e-03
4.498680e-03
4.498680e-03
3.377580e-03
2.818290e-03
3.189000e-03
2.144450e-03
3.143725e-03
2.686140e-03
1.166300e-03
2.367680e-03
2.346460e-03
1.229360e-03
3.377580e-03
2.818290e-03
3.189000e-03
2.144450e-03
3.143725e-03
2.686140e-03
1.166300e-03
2.367680e-03
2.346460e-03
1.229360e-03
SCALARS r_out double 1
LOOKUP_TABLE default
1.295244e-02
6.158740e-03
1.256557e-02
4.177348e-03
3.326240e-03
1.335270e-03
2.301000e-03
2.077000e-03
1.828270e-03
1.378000e-03
1.408000e-03
9.590000e-04
1.408000e-03
6.760000e-04
2.265470e-03
2.765380e-03
3.326240e-03
1.228446e-02
2.265470e-03
2.765380e-03
3.479835e-03
1.055000e-02
1.335270e-03
2.301000e-03
2.077000e-03
1.828270e-03
1.378000e-03
1.408000e-03
9.590000e-04
1.408000e-03
6.760000e-04
1.036381e-02
1.400000e-03
1.021555e-02
1.400000e-03
9.922895e-03
1.550000e-03
9.822677e-03
1.550000e-03
7.535740e-03
7.494924e-03
3.212460e-03
7.319121e-03
2.686140e-03
2.166820e-03
1.506660e-03
2.166820e-03
3.926120e-03
7.264839e-03
2.708900e-03
7.114312e-03
3.097370e-03
6.434530e-03
2.077480e-03
5.903860e-03
4.091130e-03
4.091130e-03
3.189000e-03
2.818290e-03
3.143725e-03
2.144450e-03
2.686140e-03
2.367680e-03
1.166300e-03
2.346460e-03
2.346460e-03
1.229360e-03
3.189000e-03
2.818290e-03
3.143725e-03
2.144450e-03
2.686140e-03
2.367680e-03
1.166300e-03
2.346460e-03
2.346460e-03
1.229360e-03
SCALARS r_d double 1
LOOKUP_TABLE default
1.445121993250000e-02
6.443415000000000e-03
1.275900739700000e-02
4.536488852000000e-03
3.900915000000000e-03
1.335270000000000e-03
3.239173852000000e-03
2.189000000000000e-03
1.952635000000000e-03
1.378000000000000e-03
1.408000000000000e-03
9.590000000000000e-04
1.408000000000000e-03
6.760000000000000e-04
2.265470000000000e-03
2.765380000000000e-03
3.900915000000000e-03
1.242501916700000e-02
2.265470000000000e-03
2.765380000000000e-03
4.187732695000001e-03
1.141723170250000e-02
1.335270000000000e-03
2.890417695000000e-03
2.189000000000000e-03
1.952635000000000e-03
1.378000000000000e-03
1.408000000000000e-03
9.590000000000000e-04
1.408000000000000e-03
6.760000000000000e-04
1.045690251950000e-02
1.400000000000000e-03
1.028967773650000e-02
1.400000000000000e-03
1.006922277450000e-02
1.550000000000000e-03
9.872785917000000e-03
1.550000000000000e-03
8.679208359500000e-03
7.515332067500000e-03
3.281220000000000e-03
7.407022559000001e-03
2.686140000000000e-03
2.166820000000000e-03
1.506660000000000e-03
2.166820000000000e-03
3.926120000000000e-03
7.291980136500001e-03
2.708900000000000e-03
7.189575540999999e-03
3.097370000000000e-03
6.774420903000000e-03
2.077480000000000e-03
6.169195006999999e-03
4.294905000000000e-03
4.294905000000000e-03
3.283290000000000e-03
2.818290000000000e-03
2.144450000000000e-03
3.166362461000000e-03
2.914932461000001e-03
2.526909905000000e-03
1.166300000000000e-03
2.357069905000000e-03
2.346460000000000e-03
1.229360000000000e-03
3.283290000000000e-03
2.818290000000000e-03
3.166362461500000e-03
2.144450000000000e-03
2.914932461500000e-03
2.526909923500000e-03
1.166300000000000e-03
2.357069923500000e-03
2.346460000000000e-03
1.229360000000000e-03
POINT_DATA 78
SCALARS boundary_id double 1
LOOKUP_TABLE default
0.000000000000000e+00
2.550000000000000e+02
2.550000000000000e+02
2.550000000000000e+02
2.550000000000000e+02
2.550000000000000e+02
1.000000000000000e+00
2.550000000000000e+02
2.550000000000000e+02
2.550000000000000e+02
2.000000000000000e+00
2.550000000000000e+02
2.550000000000000e+02
3.000000000000000e+00
4.000000000000000e+00
5.000000000000000e+00
6.000000000000000e+00
2.550000000000000e+02
2.550000000000000e+02
7.000000000000000e+00
8.000000000000000e+00
2.550000000000000e+02
2.550000000000000e+02
9.000000000000000e+00
2.550000000000000e+02
2.550000000000000e+02
2.550000000000000e+02
1.000000000000000e+01
2.550000000000000e+02
2.550000000000000e+02
1.100000000000000e+01
1.200000000000000e+01
2.550000000000000e+02
1.300000000000000e+01
2.550000000000000e+02
1.400000000000000e+01
2.550000000000000e+02
1.500000000000000e+01
2.550000000000000e+02
1.600000000000000e+01
2.550000000000000e+02
2.550000000000000e+02
2.550000000000000e+02
2.550000000000000e+02
1.700000000000000e+01
2.550000000000000e+02
1.800000000000000e+01
1.900000000000000e+01
2.000000000000000e+01
2.550000000000000e+02
2.100000000000000e+01
2.550000000000000e+02
2.200000000000000e+01
2.550000000000000e+02
2.300000000000000e+01
2.550000000000000e+02
2.550000000000000e+02
2.550000000000000e+02
2.550000000000000e+02
2.400000000000000e+01
2.550000000000000e+02
2.500000000000000e+01
2.550000000000000e+02
2.550000000000000e+02
2.600000000000000e+01
2.550000000000000e+02
2.550000000000000e+02
2.700000000000000e+01
2.550000000000000e+02
2.800000000000000e+01
2.550000000000000e+02
2.900000000000000e+01
2.550000000000000e+02
2.550000000000000e+02
3.000000000000000e+01
2.550000000000000e+02
2.550000000000000e+02
3.100000000000000e+01
SCALARS R1 double 1
LOOKUP_TABLE default
0.000000000000000e+00
0.000000000000000e+00
0.000000000000000e+00
0.000000000000000e+00
0.000000000000000e+00
0.000000000000000e+00
1.8104e+09
0.000000000000000e+00
0.000000000000000e+00
0.000000000000000e+00
1.1539e+09
0.000000000000000e+00
0.000000000000000e+00
4.7813e+09
1.1749e+09
9.391e+08
5.760e+08
0.000000000000000e+00
0.000000000000000e+00
9.424e+08
5.779e+08
0.000000000000000e+00
0.000000000000000e+00
0.000000000000000e+00
1.9243e+09
0.000000000000000e+00
0.000000000000000e+00
0.000000000000000e+00
1.1332e+09
0.000000000000000e+00
0.000000000000000e+00
4.7986e+09
1.1976e+09
2.49127e+10
0.000000000000000e+00
2.55583e+10
0.000000000000000e+00
2.32434e+10
0.000000000000000e+00
2.34425e+10
0.000000000000000e+00
0.000000000000000e+00
0.000000000000000e+00
0.000000000000000e+00
3.349e+08
0.000000000000000e+00
3.43394e+10
4.733e+08
2.182e+08
0.000000000000000e+00
2.263e+08
0.000000000000000e+00
2.270e+08
0.000000000000000e+00
2.3913e+09
0.000000000000000e+00
0.000000000000000e+00
0.000000000000000e+00
0.000000000000000e+00
0.000000000000000e+00
4.146e+08
3.427e+08
0.000000000000000e+00
0.000000000000000e+00
2.4525e+09
0.000000000000000e+00
0.000000000000000e+00
2.1156e+09
0.000000000000000e+00
0.000000000000000e+00
4.158e+08
3.429e+08
0.000000000000000e+00
0.000000000000000e+00
2.4533e+09
0.000000000000000e+00
0.000000000000000e+00
2.1166e+09
SCALARS R2 double 1
LOOKUP_TABLE default
0.000000000000000e+00
0.000000000000000e+00
0.000000000000000e+00
0.000000000000000e+00
0.000000000000000e+00
0.000000000000000e+00
7.2417e+09
0.000000000000000e+00
0.000000000000000e+00
0.000000000000000e+00
4.6155e+09
0.000000000000000e+00
0.000000000000000e+00
1.91252e+10
4.6995e+09
3.7563e+09
2.3041e+09
0.000000000000000e+00
0.000000000000000e+00
3.7696e+09
2.3118e+09
0.000000000000000e+00
0.000000000000000e+00
0.000000000000000e+00
7.6972e+09
0.000000000000000e+00
0.000000000000000e+00
0.000000000000000e+00
4.5329e+09
0.000000000000000e+00
0.000000000000000e+00
1.91945e+10
4.7905e+09
9.96508e+10
0.000000000000000e+00
1.02233e+11
0.000000000000000e+00
9.29735e+10
0.000000000000000e+00
9.37702e+10
0.000000000000000e+00
0.000000000000000e+00
0.000000000000000e+00
0.000000000000000e+00
1.3394e+09
0.000000000000000e+00
1.373574e+11
1.8933e+09
8.728e+08
0.000000000000000e+00
9.051e+08
0.000000000000000e+00
9.082e+08
0.000000000000000e+00
9.5652e+09
0.000000000000000e+00
0.000000000000000e+00
0.000000000000000e+00
0.000000000000000e+00
0.000000000000000e+00
1.6582e+09
1.3707e+09
0.000000000000000e+00
0.000000000000000e+00
9.8100e+09
0.000000000000000e+00
0.000000000000000e+00
8.4625e+09
0.000000000000000e+00
0.000000000000000e+00
1.6632e+09
1.3715e+09
0.000000000000000e+00
0.000000000000000e+00
9.8131e+09
0.000000000000000e+00
0.000000000000000e+00
8.4662e+09
SCALARS C double 1
LOOKUP_TABLE default
0.000000000000000e+00
0.000000000000000e+00
0.000000000000000e+00
0.000000000000000e+00
0.000000000000000e+00
0.000000000000000e+00
3.129e-11
0.000000000000000e+00
0.000000000000000e+00
0.000000000000000e+00
4.909e-11
0.000000000000000e+00
0.000000000000000e+00
1.185e-11
4.821e-11
6.032e-11
9.833e-11
0.000000000000000e+00
0.000000000000000e+00
6.011e-11
9.801e-11
0.000000000000000e+00
0.000000000000000e+00
0.000000000000000e+00
2.944e-11
0.000000000000000e+00
0.000000000000000e+00
0.000000000000000e+00
4.998e-11
0.000000000000000e+00
0.000000000000000e+00
1.180e-11
4.730e-11
2.274e-12
0.000000000000000e+00
2.216e-12
0.000000000000000e+00
2.43e-12
0.000000000000000e+00
2.416e-12
0.000000000000000e+00
0.000000000000000e+00
0.000000000000000e+00
0.000000000000000e+00
1.692e-10
0.000000000000000e+00
1.650e-12
1.197e-10
2.596e-10
0.000000000000000e+00
2.503e-10
0.000000000000000e+00
2.4945e-10
0.000000000000000e+00
2.369e-11
0.000000000000000e+00
0.000000000000000e+00
0.000000000000000e+00
0.000000000000000e+00
0.000000000000000e+00
1.366e-10
1.653e-10
0.000000000000000e+00
0.000000000000000e+00
2.310e-11
0.000000000000000e+00
0.000000000000000e+00
2.677e-11
0.000000000000000e+00
0.000000000000000e+00
1.362e-10
1.652e-10
0.000000000000000e+00
0.000000000000000e+00
2.309e-11
0.000000000000000e+00
0.000000000000000e+00
2.676e-11
SCALARS P_out double 1
LOOKUP_TABLE default
0.000000000000000e+00
0.000000000000000e+00
0.000000000000000e+00
0.000000000000000e+00
0.000000000000000e+00
0.000000000000000e+00
0.000000000000000e+00
0.000000000000000e+00
0.000000000000000e+00
0.000000000000000e+00
0.000000000000000e+00
0.000000000000000e+00
0.000000000000000e+00
0.000000000000000e+00
0.000000000000000e+00
0.000000000000000e+00
0.000000000000000e+00
0.000000000000000e+00
0.000000000000000e+00
0.000000000000000e+00
0.000000000000000e+00
0.000000000000000e+00
0.000000000000000e+00
0.000000000000000e+00
0.000000000000000e+00
0.000000000000000e+00
0.000000000000000e+00
0.000000000000000e+00
0.000000000000000e+00
0.000000000000000e+00
0.000000000000000e+00
0.000000000000000e+00
0.000000000000000e+00
0.000000000000000e+00
0.000000000000000e+00
0.000000000000000e+00
0.000000000000000e+00
0.000000000000000e+00
0.000000000000000e+00
0.000000000000000e+00
0.000000000000000e+00
0.000000000000000e+00
0.000000000000000e+00
0.000000000000000e+00
0.000000000000000e+00
0.000000000000000e+00
0.000000000000000e+00
0.000000000000000e+00
0.000000000000000e+00
0.000000000000000e+00
0.000000000000000e+00
0.000000000000000e+00
0.000000000000000e+00
0.000000000000000e+00
0.000000000000000e+00
0.000000000000000e+00
0.000000000000000e+00
0.000000000000000e+00
0.000000000000000e+00
0.000000000000000e+00
0.000000000000000e+00
0.000000000000000e+00
0.000000000000000e+00
0.000000000000000e+00
0.000000000000000e+00
0.000000000000000e+00
0.000000000000000e+00
0.000000000000000e+00
0.000000000000000e+00
0.000000000000000e+00
0.000000000000000e+00
0.000000000000000e+00
0.000000000000000e+00
0.000000000000000e+00
0.000000000000000e+00
0.000000000000000e+00
0.000000000000000e+00
0.000000000000000e+00
