# vtk DataFile Version 5.1
vtk output
ASCII
DATASET UNSTRUCTURED_GRID
POINTS 4 double
0 0 0 1 0 0 2 0.8 0 
2 -0.8 0 
CELLS 4 6
OFFSETS vtktypeint64
0 2 4 6 
CONNECTIVITY vtktypeint64
0 1 1 2 1 3 
CELL_TYPES 3
3
3
3

CELL_DATA 3
SCALARS vessel_id vtktypeint64 
LOOKUP_TABLE default
0 1 2 

SCALARS a0 double 1
LOOKUP_TABLE default
0.00030605 9.4787e-05 9.4787e-05 
SCALARS a_d double 1
LOOKUP_TABLE default
0.00023235 0.0001131 0.0001131 
SCALARS E double 1
LOOKUP_TABLE default
500000 700000 700000 
SCALARS h_wall double 1
LOOKUP_TABLE default
0.001032 0.00072 0.00072 
SCALARS p0 double 1
LOOKUP_TABLE default
0 0 0 
SCALARS p_d double 1
LOOKUP_TABLE default
9460 9460 9460 
SCALARS L double 1
LOOKUP_TABLE default
1 1 1 
POINT_DATA 4
SCALARS boundary_id vtktypeint64 
LOOKUP_TABLE default
0 2 1 1 

SCALARS R1 double 1
LOOKUP_TABLE default
0 0 68123000 68123000 
SCALARS R2 double 1
LOOKUP_TABLE default
0 0 3101300000 3101300000 
SCALARS C double 1
LOOKUP_TABLE default
0 0 3.6664e-10 3.6664e-10 
SCALARS P_out double 1
LOOKUP_TABLE default
0 0 0 0 
