# vtk DataFile Version 3.0
vtk output
ASCII
DATASET UNSTRUCTURED_GRID
POINTS 4 double
0.0 0.0 0.0
0.086 0.0 0.0
0.171 0.085 0.0
0.171 -0.085 0.0
CELLS 3 9
2 0 1
2 1 2
2 1 3
CELL_TYPES 3
3
3
3
CELL_DATA 3
SCALARS vessel_id int 1
LOOKUP_TABLE default
0 1 2
SCALARS a0 double 1
LOOKUP_TABLE default
1.8062e-04 9.4787e-05 9.4787e-05
SCALARS E double 1
LOOKUP_TABLE default
5e5 7e5 7e5
SCALARS h_wall double 1
LOOKUP_TABLE default
1.032e-03 0.72e-03 0.72e-03
SCALARS p_d double 1
LOOKUP_TABLE default
9.46e3 9.46e3 9.46e3
SCALARS p0 double 1
LOOKUP_TABLE default
0.0 0.0 0.0
SCALARS L double 1
LOOKUP_TABLE default
0.086 0.085 0.085
SCALARS a_d double 1
LOOKUP_TABLE default
0.00023235 0.00011310 0.00011310
SCALARS r_d double 1
LOOKUP_TABLE default
0.0086 0.0060 0.0060

POINT_DATA 4
SCALARS boundary_id int 1
LOOKUP_TABLE default
0 255 1 2
SCALARS R1 double 1
LOOKUP_TABLE default
0.0 0.0 68123000.0 68123000.0
SCALARS R2 double 1
LOOKUP_TABLE default
0.0 0.0 3101300000.0 3101300000.0
SCALARS C double 1
LOOKUP_TABLE default
0.0 0.0 3.6664e-10 3.6664e-10
SCALARS P_out double 1
LOOKUP_TABLE default
0.0 0.0 0.0 0.0