# vtk DataFile Version 3.0
vtk output
ASCII
DATASET UNSTRUCTURED_GRID

POINTS 2 double
0.0 0.0 0.0
0.126 0.0 0.0

CELLS 1 3
2 0 1

CELL_TYPES 1
3

CELL_DATA 1
SCALARS vessel_id int 1
LOOKUP_TABLE default
0
SCALARS a0 double 1
LOOKUP_TABLE default
0.22038e-4
SCALARS E double 1
LOOKUP_TABLE default
7e5
SCALARS h_wall double 1
LOOKUP_TABLE default
0.3e-3
SCALARS p_d double 1
LOOKUP_TABLE default
10.933e3
SCALARS p0 double 1
LOOKUP_TABLE default
0.0
SCALARS L double 1
LOOKUP_TABLE default
0.126
SCALARS a_d double 1
LOOKUP_TABLE default
0.282740e-4
SCALARS r_d double 1
LOOKUP_TABLE default
3e-3

POINT_DATA 2
SCALARS boundary_id int 1
LOOKUP_TABLE default
0 1
SCALARS R1 double 1
LOOKUP_TABLE default
0.0 2.4875e8
SCALARS R2 double 1
LOOKUP_TABLE default
0.0 1.8697e9
SCALARS C double 1
LOOKUP_TABLE default
0.0 1.7529e-10
SCALARS P_out double 1
LOOKUP_TABLE default
0.0 0.0