# vtk DataFile Version 3.0
vtk output
ASCII
DATASET UNSTRUCTURED_GRID
POINTS 2 double
0.0 0.0 0.0
0.24137 0.0 0.0

CELLS 1 3
2 0 1

CELL_TYPES 1
3

CELL_DATA 1
SCALARS vessel_id int 1
LOOKUP_TABLE default
0
SCALARS a0 double 1
LOOKUP_TABLE default
3.0605e-4
SCALARS E double 1
LOOKUP_TABLE default
4e5
SCALARS h_wall double 1
LOOKUP_TABLE default
1.2e-3
SCALARS p_d double 1
LOOKUP_TABLE default
9.46e3
SCALARS p0 double 1
LOOKUP_TABLE default
0.0
SCALARS L double 1
LOOKUP_TABLE default
0.24137
SCALARS a_d double 1
LOOKUP_TABLE default
4.5239e-4
SCALARS r_d double 1
LOOKUP_TABLE default
0.012

POINT_DATA 2
SCALARS boundary_id int 1
LOOKUP_TABLE default
0 1
SCALARS R1 double 1
LOOKUP_TABLE default
0.0 1.1752e7
SCALARS R2 double 1
LOOKUP_TABLE default
0.0 1.1167e8
SCALARS C double 1
LOOKUP_TABLE default
0.0 1.0163e-8
SCALARS P_out double 1
LOOKUP_TABLE default
0.0 0.0